TITLE = "1D CFD Solution"
VARIABLES = "x", "u"
ZONE I=501, F=POINT
0 0.00046332
0.002 0.0104083
0.004 0.0228816
0.006 0.0351079
0.008 0.0471273
0.01 0.0590085
0.012 0.0708091
0.014 0.0825694
0.016 0.0943139
0.018 0.106055
0.02 0.117796
0.022 0.129538
0.024 0.141276
0.026 0.153008
0.028 0.164731
0.03 0.176443
0.032 0.188143
0.034 0.199829
0.036 0.211502
0.038 0.22316
0.04 0.234803
0.042 0.246429
0.044 0.258039
0.046 0.269631
0.048 0.281204
0.05 0.292758
0.052 0.304291
0.054 0.315803
0.056 0.327293
0.058 0.338759
0.06 0.3502
0.062 0.361617
0.064 0.373007
0.066 0.38437
0.068 0.395704
0.07 0.407008
0.072 0.418283
0.074 0.429525
0.076 0.440735
0.078 0.45191
0.08 0.46305
0.082 0.474154
0.084 0.48522
0.086 0.496248
0.088 0.507234
0.09 0.51818
0.092 0.529082
0.094 0.53994
0.096 0.550752
0.098 0.561517
0.1 0.572232
0.102 0.582897
0.104 0.59351
0.106 0.60407
0.108 0.614573
0.11 0.62502
0.112 0.635407
0.114 0.645733
0.116 0.655996
0.118 0.666194
0.12 0.676325
0.122 0.686386
0.124 0.696376
0.126 0.706291
0.128 0.716131
0.13 0.725891
0.132 0.735569
0.134 0.745163
0.136 0.75467
0.138 0.764087
0.14 0.77341
0.142 0.782636
0.144 0.791763
0.146 0.800786
0.148 0.809701
0.15 0.818506
0.152 0.827195
0.154 0.835765
0.156 0.84421
0.158 0.852527
0.16 0.860709
0.162 0.868753
0.164 0.876652
0.166 0.8844
0.168 0.891991
0.17 0.899418
0.172 0.906675
0.174 0.913754
0.176 0.920647
0.178 0.927345
0.18 0.933839
0.182 0.94012
0.184 0.946178
0.186 0.952
0.188 0.957576
0.19 0.962895
0.192 0.967943
0.194 0.972711
0.196 0.977191
0.198 0.981378
0.2 0.985279
0.202 0.98891
0.204 0.99231
0.206 0.995538
0.208 0.998705
0.21 0.999769
0.212 0.999768
0.214 0.999759
0.216 0.999721
0.218 0.999586
0.22 0.999141
0.222 0.99773
0.224 0.994193
0.226 0.989614
0.228 0.984178
0.23 0.977829
0.232 0.96958
0.234 0.961207
0.236 0.948621
0.238 0.936877
0.24 0.918865
0.242 0.902093
0.244 0.875024
0.246 0.851544
0.248 0.798965
0.25 3.83139e-15
0.252 -0.798965
0.254 -0.851544
0.256 -0.875024
0.258 -0.902093
0.26 -0.918865
0.262 -0.936877
0.264 -0.948621
0.266 -0.961207
0.268 -0.96958
0.27 -0.977829
0.272 -0.984178
0.274 -0.989614
0.276 -0.994193
0.278 -0.99773
0.28 -0.999141
0.282 -0.999586
0.284 -0.999721
0.286 -0.999759
0.288 -0.999768
0.29 -0.999769
0.292 -0.998705
0.294 -0.995538
0.296 -0.99231
0.298 -0.98891
0.3 -0.985279
0.302 -0.981378
0.304 -0.977191
0.306 -0.972711
0.308 -0.967943
0.31 -0.962895
0.312 -0.957576
0.314 -0.952
0.316 -0.946178
0.318 -0.94012
0.32 -0.933839
0.322 -0.927345
0.324 -0.920647
0.326 -0.913754
0.328 -0.906675
0.33 -0.899418
0.332 -0.891991
0.334 -0.8844
0.336 -0.876652
0.338 -0.868753
0.34 -0.860709
0.342 -0.852527
0.344 -0.84421
0.346 -0.835765
0.348 -0.827195
0.35 -0.818506
0.352 -0.809701
0.354 -0.800786
0.356 -0.791763
0.358 -0.782636
0.36 -0.77341
0.362 -0.764087
0.364 -0.75467
0.366 -0.745163
0.368 -0.735569
0.37 -0.725891
0.372 -0.716131
0.374 -0.706291
0.376 -0.696376
0.378 -0.686386
0.38 -0.676325
0.382 -0.666194
0.384 -0.655996
0.386 -0.645733
0.388 -0.635407
0.39 -0.62502
0.392 -0.614573
0.394 -0.60407
0.396 -0.59351
0.398 -0.582897
0.4 -0.572232
0.402 -0.561517
0.404 -0.550752
0.406 -0.53994
0.408 -0.529082
0.41 -0.51818
0.412 -0.507234
0.414 -0.496248
0.416 -0.48522
0.418 -0.474154
0.42 -0.46305
0.422 -0.45191
0.424 -0.440735
0.426 -0.429525
0.428 -0.418283
0.43 -0.407008
0.432 -0.395704
0.434 -0.384369
0.436 -0.373007
0.438 -0.361617
0.44 -0.3502
0.442 -0.338759
0.444 -0.327293
0.446 -0.315803
0.448 -0.304291
0.45 -0.292758
0.452 -0.281204
0.454 -0.269631
0.456 -0.258039
0.458 -0.246429
0.46 -0.234802
0.462 -0.223159
0.464 -0.211501
0.466 -0.199829
0.468 -0.188143
0.47 -0.176445
0.472 -0.164735
0.474 -0.153014
0.476 -0.141282
0.478 -0.129541
0.48 -0.117792
0.482 -0.106035
0.484 -0.0942709
0.486 -0.0825007
0.488 -0.070725
0.49 -0.0589447
0.492 -0.0471605
0.494 -0.0353732
0.496 -0.0235835
0.498 -0.0117922
0.5 -1.14938e-16
0.502 0.0117922
0.504 0.0235835
0.506 0.0353732
0.508 0.0471605
0.51 0.0589447
0.512 0.070725
0.514 0.0825007
0.516 0.0942709
0.518 0.106035
0.52 0.117792
0.522 0.129541
0.524 0.141282
0.526 0.153014
0.528 0.164735
0.53 0.176445
0.532 0.188143
0.534 0.199829
0.536 0.211501
0.538 0.223159
0.54 0.234802
0.542 0.246429
0.544 0.258039
0.546 0.269631
0.548 0.281204
0.55 0.292758
0.552 0.304291
0.554 0.315803
0.556 0.327293
0.558 0.338759
0.56 0.3502
0.562 0.361617
0.564 0.373007
0.566 0.384369
0.568 0.395704
0.57 0.407008
0.572 0.418283
0.574 0.429525
0.576 0.440735
0.578 0.45191
0.58 0.46305
0.582 0.474154
0.584 0.48522
0.586 0.496248
0.588 0.507234
0.59 0.51818
0.592 0.529082
0.594 0.53994
0.596 0.550752
0.598 0.561517
0.6 0.572232
0.602 0.582897
0.604 0.59351
0.606 0.60407
0.608 0.614573
0.61 0.62502
0.612 0.635407
0.614 0.645733
0.616 0.655996
0.618 0.666194
0.62 0.676325
0.622 0.686386
0.624 0.696376
0.626 0.706291
0.628 0.716131
0.63 0.725891
0.632 0.735569
0.634 0.745163
0.636 0.75467
0.638 0.764087
0.64 0.77341
0.642 0.782636
0.644 0.791763
0.646 0.800786
0.648 0.809701
0.65 0.818506
0.652 0.827195
0.654 0.835765
0.656 0.84421
0.658 0.852527
0.66 0.860709
0.662 0.868753
0.664 0.876652
0.666 0.8844
0.668 0.891991
0.67 0.899418
0.672 0.906675
0.674 0.913754
0.676 0.920647
0.678 0.927345
0.68 0.933839
0.682 0.94012
0.684 0.946178
0.686 0.952
0.688 0.957576
0.69 0.962895
0.692 0.967943
0.694 0.972711
0.696 0.977191
0.698 0.981378
0.7 0.985279
0.702 0.98891
0.704 0.99231
0.706 0.995538
0.708 0.998705
0.71 0.999769
0.712 0.999768
0.714 0.999759
0.716 0.999721
0.718 0.999586
0.72 0.999141
0.722 0.99773
0.724 0.994193
0.726 0.989614
0.728 0.984178
0.73 0.977829
0.732 0.96958
0.734 0.961207
0.736 0.948621
0.738 0.936877
0.74 0.918865
0.742 0.902093
0.744 0.875024
0.746 0.851544
0.748 0.798965
0.75 8.5958e-15
0.752 -0.798965
0.754 -0.851544
0.756 -0.875024
0.758 -0.902093
0.76 -0.918865
0.762 -0.936877
0.764 -0.948621
0.766 -0.961207
0.768 -0.96958
0.77 -0.977829
0.772 -0.984178
0.774 -0.989614
0.776 -0.994193
0.778 -0.99773
0.78 -0.999141
0.782 -0.999586
0.784 -0.999721
0.786 -0.999759
0.788 -0.999768
0.79 -0.999769
0.792 -0.998705
0.794 -0.995538
0.796 -0.99231
0.798 -0.98891
0.8 -0.985279
0.802 -0.981378
0.804 -0.977191
0.806 -0.972711
0.808 -0.967943
0.81 -0.962895
0.812 -0.957576
0.814 -0.952
0.816 -0.946178
0.818 -0.94012
0.82 -0.933839
0.822 -0.927345
0.824 -0.920647
0.826 -0.913754
0.828 -0.906675
0.83 -0.899418
0.832 -0.891991
0.834 -0.8844
0.836 -0.876652
0.838 -0.868753
0.84 -0.860709
0.842 -0.852527
0.844 -0.84421
0.846 -0.835765
0.848 -0.827195
0.85 -0.818506
0.852 -0.809701
0.854 -0.800786
0.856 -0.791763
0.858 -0.782636
0.86 -0.77341
0.862 -0.764087
0.864 -0.75467
0.866 -0.745163
0.868 -0.735569
0.87 -0.725891
0.872 -0.716131
0.874 -0.706291
0.876 -0.696376
0.878 -0.686386
0.88 -0.676325
0.882 -0.666194
0.884 -0.655996
0.886 -0.645733
0.888 -0.635407
0.89 -0.62502
0.892 -0.614573
0.894 -0.60407
0.896 -0.59351
0.898 -0.582897
0.9 -0.572232
0.902 -0.561517
0.904 -0.550752
0.906 -0.53994
0.908 -0.529082
0.91 -0.51818
0.912 -0.507234
0.914 -0.496248
0.916 -0.48522
0.918 -0.474154
0.92 -0.46305
0.922 -0.45191
0.924 -0.440735
0.926 -0.429525
0.928 -0.418283
0.93 -0.407008
0.932 -0.395704
0.934 -0.38437
0.936 -0.373007
0.938 -0.361617
0.94 -0.3502
0.942 -0.338759
0.944 -0.327293
0.946 -0.315803
0.948 -0.304291
0.95 -0.292758
0.952 -0.281204
0.954 -0.269631
0.956 -0.258039
0.958 -0.246429
0.96 -0.234803
0.962 -0.22316
0.964 -0.211502
0.966 -0.199829
0.968 -0.188143
0.97 -0.176443
0.972 -0.164731
0.974 -0.153008
0.976 -0.141276
0.978 -0.129538
0.98 -0.117796
0.982 -0.106055
0.984 -0.0943139
0.986 -0.0825694
0.988 -0.0708091
0.99 -0.0590085
0.992 -0.0471273
0.994 -0.0351079
0.996 -0.0228816
0.998 -0.0104083
1 -0.00046332
