TITLE = "1D CFD Solution"
VARIABLES = "x", "u"
ZONE I=501, F=POINT
0 0.000578307
0.002 0.00747104
0.004 0.0157856
0.006 0.0243624
0.008 0.0329188
0.01 0.0414002
0.012 0.0498115
0.014 0.0581711
0.016 0.0664972
0.018 0.0748041
0.02 0.0831013
0.022 0.0913943
0.024 0.099686
0.026 0.107977
0.028 0.116268
0.03 0.124557
0.032 0.132844
0.034 0.141129
0.036 0.149411
0.038 0.15769
0.04 0.165964
0.042 0.174235
0.044 0.182502
0.046 0.190764
0.048 0.199021
0.05 0.207274
0.052 0.215522
0.054 0.223765
0.056 0.232002
0.058 0.240234
0.06 0.24846
0.062 0.25668
0.064 0.264893
0.066 0.2731
0.068 0.281301
0.07 0.289494
0.072 0.29768
0.074 0.305859
0.076 0.31403
0.078 0.322193
0.08 0.330348
0.082 0.338494
0.084 0.346632
0.086 0.35476
0.088 0.36288
0.09 0.37099
0.092 0.37909
0.094 0.38718
0.096 0.395259
0.098 0.403328
0.1 0.411386
0.102 0.419432
0.104 0.427467
0.106 0.43549
0.108 0.443501
0.11 0.4515
0.112 0.459485
0.114 0.467457
0.116 0.475415
0.118 0.48336
0.12 0.49129
0.122 0.499205
0.124 0.507106
0.126 0.514991
0.128 0.52286
0.13 0.530712
0.132 0.538548
0.134 0.546367
0.136 0.554168
0.138 0.561951
0.14 0.569715
0.142 0.57746
0.144 0.585186
0.146 0.592892
0.148 0.600577
0.15 0.608241
0.152 0.615883
0.154 0.623503
0.156 0.6311
0.158 0.638674
0.16 0.646224
0.162 0.653748
0.164 0.661248
0.166 0.668721
0.168 0.676167
0.17 0.683585
0.172 0.690976
0.174 0.698337
0.176 0.705667
0.178 0.712967
0.18 0.720236
0.182 0.727471
0.184 0.734673
0.186 0.741839
0.188 0.748971
0.19 0.756065
0.192 0.763121
0.194 0.770138
0.196 0.777115
0.198 0.784049
0.2 0.790941
0.202 0.797788
0.204 0.804589
0.206 0.811342
0.208 0.818046
0.21 0.824699
0.212 0.831299
0.214 0.837845
0.216 0.844333
0.218 0.850763
0.22 0.857131
0.222 0.863436
0.224 0.869675
0.226 0.875845
0.228 0.881943
0.23 0.887967
0.232 0.893912
0.234 0.899777
0.236 0.905554
0.238 0.911251
0.24 0.916817
0.242 0.922442
0.244 0.927342
0.246 0.935593
0.248 0.912145
0.25 9.45878e-15
0.252 -0.912145
0.254 -0.935593
0.256 -0.927342
0.258 -0.922442
0.26 -0.916817
0.262 -0.911251
0.264 -0.905554
0.266 -0.899777
0.268 -0.893912
0.27 -0.887967
0.272 -0.881943
0.274 -0.875845
0.276 -0.869675
0.278 -0.863436
0.28 -0.857131
0.282 -0.850763
0.284 -0.844333
0.286 -0.837845
0.288 -0.831299
0.29 -0.824699
0.292 -0.818046
0.294 -0.811342
0.296 -0.804589
0.298 -0.797788
0.3 -0.790941
0.302 -0.784049
0.304 -0.777115
0.306 -0.770138
0.308 -0.763121
0.31 -0.756065
0.312 -0.748971
0.314 -0.741839
0.316 -0.734673
0.318 -0.727471
0.32 -0.720236
0.322 -0.712967
0.324 -0.705667
0.326 -0.698337
0.328 -0.690976
0.33 -0.683585
0.332 -0.676167
0.334 -0.668721
0.336 -0.661248
0.338 -0.653748
0.34 -0.646224
0.342 -0.638674
0.344 -0.6311
0.346 -0.623503
0.348 -0.615883
0.35 -0.608241
0.352 -0.600577
0.354 -0.592892
0.356 -0.585186
0.358 -0.57746
0.36 -0.569715
0.362 -0.561951
0.364 -0.554168
0.366 -0.546367
0.368 -0.538548
0.37 -0.530712
0.372 -0.52286
0.374 -0.514991
0.376 -0.507106
0.378 -0.499205
0.38 -0.49129
0.382 -0.48336
0.384 -0.475415
0.386 -0.467457
0.388 -0.459485
0.39 -0.4515
0.392 -0.443501
0.394 -0.43549
0.396 -0.427467
0.398 -0.419432
0.4 -0.411386
0.402 -0.403328
0.404 -0.395259
0.406 -0.38718
0.408 -0.37909
0.41 -0.37099
0.412 -0.36288
0.414 -0.35476
0.416 -0.346632
0.418 -0.338494
0.42 -0.330348
0.422 -0.322193
0.424 -0.31403
0.426 -0.305859
0.428 -0.29768
0.43 -0.289494
0.432 -0.281301
0.434 -0.2731
0.436 -0.264893
0.438 -0.25668
0.44 -0.24846
0.442 -0.240234
0.444 -0.232002
0.446 -0.223765
0.448 -0.215522
0.45 -0.207274
0.452 -0.199021
0.454 -0.190764
0.456 -0.182502
0.458 -0.174235
0.46 -0.165965
0.462 -0.15769
0.464 -0.149412
0.466 -0.141131
0.468 -0.132846
0.47 -0.124558
0.472 -0.116267
0.474 -0.107973
0.476 -0.0996771
0.478 -0.0913788
0.48 -0.0830783
0.482 -0.0747759
0.484 -0.0664718
0.486 -0.0581662
0.488 -0.0498593
0.49 -0.0415512
0.492 -0.0332421
0.494 -0.0249323
0.496 -0.0166219
0.498 -0.00831106
0.5 -8.1013e-17
0.502 0.00831106
0.504 0.0166219
0.506 0.0249323
0.508 0.0332421
0.51 0.0415512
0.512 0.0498593
0.514 0.0581662
0.516 0.0664718
0.518 0.0747759
0.52 0.0830783
0.522 0.0913788
0.524 0.0996771
0.526 0.107973
0.528 0.116267
0.53 0.124558
0.532 0.132846
0.534 0.141131
0.536 0.149412
0.538 0.15769
0.54 0.165965
0.542 0.174235
0.544 0.182502
0.546 0.190764
0.548 0.199021
0.55 0.207274
0.552 0.215522
0.554 0.223765
0.556 0.232002
0.558 0.240234
0.56 0.24846
0.562 0.25668
0.564 0.264893
0.566 0.2731
0.568 0.281301
0.57 0.289494
0.572 0.29768
0.574 0.305859
0.576 0.31403
0.578 0.322193
0.58 0.330348
0.582 0.338494
0.584 0.346632
0.586 0.35476
0.588 0.36288
0.59 0.37099
0.592 0.37909
0.594 0.38718
0.596 0.395259
0.598 0.403328
0.6 0.411386
0.602 0.419432
0.604 0.427467
0.606 0.43549
0.608 0.443501
0.61 0.4515
0.612 0.459485
0.614 0.467457
0.616 0.475415
0.618 0.48336
0.62 0.49129
0.622 0.499205
0.624 0.507106
0.626 0.514991
0.628 0.52286
0.63 0.530712
0.632 0.538548
0.634 0.546367
0.636 0.554168
0.638 0.561951
0.64 0.569715
0.642 0.57746
0.644 0.585186
0.646 0.592892
0.648 0.600577
0.65 0.608241
0.652 0.615883
0.654 0.623503
0.656 0.6311
0.658 0.638674
0.66 0.646224
0.662 0.653748
0.664 0.661248
0.666 0.668721
0.668 0.676167
0.67 0.683585
0.672 0.690976
0.674 0.698337
0.676 0.705667
0.678 0.712967
0.68 0.720236
0.682 0.727471
0.684 0.734673
0.686 0.741839
0.688 0.748971
0.69 0.756065
0.692 0.763121
0.694 0.770138
0.696 0.777115
0.698 0.784049
0.7 0.790941
0.702 0.797788
0.704 0.804589
0.706 0.811342
0.708 0.818046
0.71 0.824699
0.712 0.831299
0.714 0.837845
0.716 0.844333
0.718 0.850763
0.72 0.857131
0.722 0.863436
0.724 0.869675
0.726 0.875845
0.728 0.881943
0.73 0.887967
0.732 0.893912
0.734 0.899777
0.736 0.905554
0.738 0.911251
0.74 0.916817
0.742 0.922442
0.744 0.927342
0.746 0.935593
0.748 0.912145
0.75 1.04572e-14
0.752 -0.912145
0.754 -0.935593
0.756 -0.927342
0.758 -0.922442
0.76 -0.916817
0.762 -0.911251
0.764 -0.905554
0.766 -0.899777
0.768 -0.893912
0.77 -0.887967
0.772 -0.881943
0.774 -0.875845
0.776 -0.869675
0.778 -0.863436
0.78 -0.857131
0.782 -0.850763
0.784 -0.844333
0.786 -0.837845
0.788 -0.831299
0.79 -0.824699
0.792 -0.818046
0.794 -0.811342
0.796 -0.804589
0.798 -0.797788
0.8 -0.790941
0.802 -0.784049
0.804 -0.777115
0.806 -0.770138
0.808 -0.763121
0.81 -0.756065
0.812 -0.748971
0.814 -0.741839
0.816 -0.734673
0.818 -0.727471
0.82 -0.720236
0.822 -0.712967
0.824 -0.705667
0.826 -0.698337
0.828 -0.690976
0.83 -0.683585
0.832 -0.676167
0.834 -0.668721
0.836 -0.661248
0.838 -0.653748
0.84 -0.646224
0.842 -0.638674
0.844 -0.6311
0.846 -0.623503
0.848 -0.615883
0.85 -0.608241
0.852 -0.600577
0.854 -0.592892
0.856 -0.585186
0.858 -0.57746
0.86 -0.569715
0.862 -0.561951
0.864 -0.554168
0.866 -0.546367
0.868 -0.538548
0.87 -0.530712
0.872 -0.52286
0.874 -0.514991
0.876 -0.507106
0.878 -0.499205
0.88 -0.49129
0.882 -0.48336
0.884 -0.475415
0.886 -0.467457
0.888 -0.459485
0.89 -0.4515
0.892 -0.443501
0.894 -0.43549
0.896 -0.427467
0.898 -0.419432
0.9 -0.411386
0.902 -0.403328
0.904 -0.395259
0.906 -0.38718
0.908 -0.37909
0.91 -0.37099
0.912 -0.36288
0.914 -0.35476
0.916 -0.346632
0.918 -0.338494
0.92 -0.330348
0.922 -0.322193
0.924 -0.31403
0.926 -0.305859
0.928 -0.29768
0.93 -0.289494
0.932 -0.281301
0.934 -0.2731
0.936 -0.264893
0.938 -0.25668
0.94 -0.24846
0.942 -0.240234
0.944 -0.232002
0.946 -0.223765
0.948 -0.215522
0.95 -0.207274
0.952 -0.199021
0.954 -0.190764
0.956 -0.182502
0.958 -0.174235
0.96 -0.165964
0.962 -0.15769
0.964 -0.149411
0.966 -0.141129
0.968 -0.132844
0.97 -0.124557
0.972 -0.116268
0.974 -0.107977
0.976 -0.099686
0.978 -0.0913943
0.98 -0.0831013
0.982 -0.0748041
0.984 -0.0664972
0.986 -0.0581711
0.988 -0.0498115
0.99 -0.0414002
0.992 -0.0329188
0.994 -0.0243624
0.996 -0.0157856
0.998 -0.00747104
1 -0.000578307
