TITLE = "1D CFD Solution"
VARIABLES = "x", "u"
ZONE I=501, F=POINT
0 0.000482318
0.002 0.0132475
0.004 0.0280305
0.006 0.0427766
0.008 0.0572727
0.01 0.0716211
0.012 0.0859124
0.014 0.100188
0.016 0.114457
0.018 0.128718
0.02 0.142967
0.022 0.157199
0.024 0.171412
0.026 0.185605
0.028 0.199776
0.03 0.213922
0.032 0.228043
0.034 0.242136
0.036 0.256199
0.038 0.270232
0.04 0.284231
0.042 0.298195
0.044 0.312122
0.046 0.32601
0.048 0.339857
0.05 0.353661
0.052 0.367421
0.054 0.381133
0.056 0.394795
0.058 0.408407
0.06 0.421965
0.062 0.435467
0.064 0.448911
0.066 0.462294
0.068 0.475615
0.07 0.48887
0.072 0.502058
0.074 0.515176
0.076 0.52822
0.078 0.541189
0.08 0.55408
0.082 0.566889
0.084 0.579615
0.086 0.592253
0.088 0.604802
0.09 0.617257
0.092 0.629617
0.094 0.641876
0.096 0.654032
0.098 0.666082
0.1 0.678021
0.102 0.689847
0.104 0.701554
0.106 0.71314
0.108 0.7246
0.11 0.735929
0.112 0.747123
0.114 0.758178
0.116 0.769089
0.118 0.779851
0.12 0.790458
0.122 0.800905
0.124 0.811187
0.126 0.821298
0.128 0.831231
0.13 0.840981
0.132 0.850541
0.134 0.859904
0.136 0.869062
0.138 0.878008
0.14 0.886734
0.142 0.895232
0.144 0.903492
0.146 0.911507
0.148 0.919265
0.15 0.926758
0.152 0.933973
0.154 0.940901
0.156 0.947528
0.158 0.953842
0.16 0.959831
0.162 0.965481
0.164 0.970774
0.166 0.975687
0.168 0.980199
0.17 0.984304
0.172 0.988032
0.174 0.991442
0.176 0.994542
0.178 0.997106
0.18 0.998596
0.182 0.998936
0.184 0.998927
0.186 0.998791
0.188 0.998367
0.19 0.997442
0.192 0.995796
0.194 0.993253
0.196 0.989701
0.198 0.985108
0.2 0.979486
0.202 0.972844
0.204 0.965154
0.206 0.956336
0.208 0.946276
0.21 0.934839
0.212 0.921891
0.214 0.907289
0.216 0.890879
0.218 0.872487
0.22 0.851904
0.222 0.82889
0.224 0.803162
0.226 0.77439
0.228 0.742189
0.23 0.706105
0.232 0.665606
0.234 0.620067
0.236 0.568768
0.238 0.510906
0.24 0.445634
0.242 0.372177
0.244 0.290062
0.246 0.199508
0.248 0.10192
0.25 5.6357e-16
0.252 -0.10192
0.254 -0.199508
0.256 -0.290062
0.258 -0.372177
0.26 -0.445634
0.262 -0.510906
0.264 -0.568768
0.266 -0.620067
0.268 -0.665606
0.27 -0.706105
0.272 -0.742189
0.274 -0.77439
0.276 -0.803162
0.278 -0.82889
0.28 -0.851904
0.282 -0.872487
0.284 -0.890879
0.286 -0.907289
0.288 -0.921891
0.29 -0.934839
0.292 -0.946276
0.294 -0.956336
0.296 -0.965154
0.298 -0.972844
0.3 -0.979486
0.302 -0.985108
0.304 -0.989701
0.306 -0.993253
0.308 -0.995796
0.31 -0.997442
0.312 -0.998367
0.314 -0.998791
0.316 -0.998927
0.318 -0.998936
0.32 -0.998596
0.322 -0.997106
0.324 -0.994542
0.326 -0.991442
0.328 -0.988032
0.33 -0.984304
0.332 -0.980199
0.334 -0.975687
0.336 -0.970774
0.338 -0.965481
0.34 -0.959831
0.342 -0.953842
0.344 -0.947528
0.346 -0.940901
0.348 -0.933973
0.35 -0.926758
0.352 -0.919265
0.354 -0.911507
0.356 -0.903492
0.358 -0.895232
0.36 -0.886734
0.362 -0.878008
0.364 -0.869062
0.366 -0.859904
0.368 -0.850541
0.37 -0.840981
0.372 -0.831231
0.374 -0.821298
0.376 -0.811187
0.378 -0.800905
0.38 -0.790458
0.382 -0.779851
0.384 -0.769089
0.386 -0.758178
0.388 -0.747123
0.39 -0.735929
0.392 -0.7246
0.394 -0.71314
0.396 -0.701554
0.398 -0.689847
0.4 -0.678021
0.402 -0.666082
0.404 -0.654032
0.406 -0.641876
0.408 -0.629617
0.41 -0.617257
0.412 -0.604802
0.414 -0.592253
0.416 -0.579615
0.418 -0.566889
0.42 -0.55408
0.422 -0.541189
0.424 -0.52822
0.426 -0.515176
0.428 -0.502058
0.43 -0.48887
0.432 -0.475615
0.434 -0.462294
0.436 -0.448911
0.438 -0.435467
0.44 -0.421965
0.442 -0.408407
0.444 -0.394795
0.446 -0.381133
0.448 -0.367421
0.45 -0.353661
0.452 -0.339857
0.454 -0.32601
0.456 -0.312122
0.458 -0.298195
0.46 -0.284231
0.462 -0.270232
0.464 -0.256199
0.466 -0.242136
0.468 -0.228043
0.47 -0.213922
0.472 -0.199776
0.474 -0.185605
0.476 -0.171413
0.478 -0.1572
0.48 -0.142968
0.482 -0.128719
0.484 -0.114455
0.486 -0.100178
0.488 -0.0858885
0.49 -0.0715892
0.492 -0.0572815
0.494 -0.0429671
0.496 -0.0286476
0.498 -0.0143247
0.5 -1.3962e-16
0.502 0.0143247
0.504 0.0286476
0.506 0.0429671
0.508 0.0572815
0.51 0.0715892
0.512 0.0858885
0.514 0.100178
0.516 0.114455
0.518 0.128719
0.52 0.142968
0.522 0.1572
0.524 0.171413
0.526 0.185605
0.528 0.199776
0.53 0.213922
0.532 0.228043
0.534 0.242136
0.536 0.256199
0.538 0.270232
0.54 0.284231
0.542 0.298195
0.544 0.312122
0.546 0.32601
0.548 0.339857
0.55 0.353661
0.552 0.367421
0.554 0.381133
0.556 0.394795
0.558 0.408407
0.56 0.421965
0.562 0.435467
0.564 0.448911
0.566 0.462294
0.568 0.475615
0.57 0.48887
0.572 0.502058
0.574 0.515176
0.576 0.52822
0.578 0.541189
0.58 0.55408
0.582 0.566889
0.584 0.579615
0.586 0.592253
0.588 0.604802
0.59 0.617257
0.592 0.629617
0.594 0.641876
0.596 0.654032
0.598 0.666082
0.6 0.678021
0.602 0.689847
0.604 0.701554
0.606 0.71314
0.608 0.7246
0.61 0.735929
0.612 0.747123
0.614 0.758178
0.616 0.769089
0.618 0.779851
0.62 0.790458
0.622 0.800905
0.624 0.811187
0.626 0.821298
0.628 0.831231
0.63 0.840981
0.632 0.850541
0.634 0.859904
0.636 0.869062
0.638 0.878008
0.64 0.886734
0.642 0.895232
0.644 0.903492
0.646 0.911507
0.648 0.919265
0.65 0.926758
0.652 0.933973
0.654 0.940901
0.656 0.947528
0.658 0.953842
0.66 0.959831
0.662 0.965481
0.664 0.970774
0.666 0.975687
0.668 0.980199
0.67 0.984304
0.672 0.988032
0.674 0.991442
0.676 0.994542
0.678 0.997106
0.68 0.998596
0.682 0.998936
0.684 0.998927
0.686 0.998791
0.688 0.998367
0.69 0.997442
0.692 0.995796
0.694 0.993253
0.696 0.989701
0.698 0.985108
0.7 0.979486
0.702 0.972844
0.704 0.965154
0.706 0.956336
0.708 0.946276
0.71 0.934839
0.712 0.921891
0.714 0.907289
0.716 0.890879
0.718 0.872487
0.72 0.851904
0.722 0.82889
0.724 0.803162
0.726 0.77439
0.728 0.742189
0.73 0.706105
0.732 0.665606
0.734 0.620067
0.736 0.568768
0.738 0.510906
0.74 0.445634
0.742 0.372177
0.744 0.290062
0.746 0.199508
0.748 0.10192
0.75 1.5188e-15
0.752 -0.10192
0.754 -0.199508
0.756 -0.290062
0.758 -0.372177
0.76 -0.445634
0.762 -0.510906
0.764 -0.568768
0.766 -0.620067
0.768 -0.665606
0.77 -0.706105
0.772 -0.742189
0.774 -0.77439
0.776 -0.803162
0.778 -0.82889
0.78 -0.851904
0.782 -0.872487
0.784 -0.890879
0.786 -0.907289
0.788 -0.921891
0.79 -0.934839
0.792 -0.946276
0.794 -0.956336
0.796 -0.965154
0.798 -0.972844
0.8 -0.979486
0.802 -0.985108
0.804 -0.989701
0.806 -0.993253
0.808 -0.995796
0.81 -0.997442
0.812 -0.998367
0.814 -0.998791
0.816 -0.998927
0.818 -0.998936
0.82 -0.998596
0.822 -0.997106
0.824 -0.994542
0.826 -0.991442
0.828 -0.988032
0.83 -0.984304
0.832 -0.980199
0.834 -0.975687
0.836 -0.970774
0.838 -0.965481
0.84 -0.959831
0.842 -0.953842
0.844 -0.947528
0.846 -0.940901
0.848 -0.933973
0.85 -0.926758
0.852 -0.919265
0.854 -0.911507
0.856 -0.903492
0.858 -0.895232
0.86 -0.886734
0.862 -0.878008
0.864 -0.869062
0.866 -0.859904
0.868 -0.850541
0.87 -0.840981
0.872 -0.831231
0.874 -0.821298
0.876 -0.811187
0.878 -0.800905
0.88 -0.790458
0.882 -0.779851
0.884 -0.769089
0.886 -0.758178
0.888 -0.747123
0.89 -0.735929
0.892 -0.7246
0.894 -0.71314
0.896 -0.701554
0.898 -0.689847
0.9 -0.678021
0.902 -0.666082
0.904 -0.654032
0.906 -0.641876
0.908 -0.629617
0.91 -0.617257
0.912 -0.604802
0.914 -0.592253
0.916 -0.579615
0.918 -0.566889
0.92 -0.55408
0.922 -0.541189
0.924 -0.52822
0.926 -0.515176
0.928 -0.502058
0.93 -0.48887
0.932 -0.475615
0.934 -0.462294
0.936 -0.448911
0.938 -0.435467
0.94 -0.421965
0.942 -0.408407
0.944 -0.394795
0.946 -0.381133
0.948 -0.367421
0.95 -0.353661
0.952 -0.339857
0.954 -0.32601
0.956 -0.312122
0.958 -0.298195
0.96 -0.284231
0.962 -0.270232
0.964 -0.256199
0.966 -0.242136
0.968 -0.228043
0.97 -0.213922
0.972 -0.199776
0.974 -0.185605
0.976 -0.171412
0.978 -0.157199
0.98 -0.142967
0.982 -0.128718
0.984 -0.114457
0.986 -0.100188
0.988 -0.0859124
0.99 -0.0716211
0.992 -0.0572727
0.994 -0.0427766
0.996 -0.0280305
0.998 -0.0132475
1 -0.000482318
