TITLE = "1D CFD Solution"
VARIABLES = "x", "u"
ZONE I=501, F=POINT
0 0.000672409
0.002 0.00714261
0.004 0.0145952
0.006 0.0222553
0.008 0.0299322
0.01 0.0375797
0.012 0.045192
0.014 0.0527748
0.016 0.0603359
0.018 0.0678827
0.02 0.0754206
0.022 0.0829536
0.024 0.090484
0.026 0.098013
0.028 0.105541
0.03 0.113068
0.032 0.120594
0.034 0.128118
0.036 0.135641
0.038 0.143161
0.04 0.150679
0.042 0.158195
0.044 0.165708
0.046 0.173217
0.048 0.180724
0.05 0.188227
0.052 0.195727
0.054 0.203224
0.056 0.210716
0.058 0.218205
0.06 0.225691
0.062 0.233172
0.064 0.240649
0.066 0.248121
0.068 0.255589
0.07 0.263052
0.072 0.270511
0.074 0.277964
0.076 0.285412
0.078 0.292855
0.08 0.300293
0.082 0.307725
0.084 0.315151
0.086 0.322571
0.088 0.329984
0.09 0.337392
0.092 0.344793
0.094 0.352187
0.096 0.359574
0.098 0.366954
0.1 0.374327
0.102 0.381693
0.104 0.38905
0.106 0.3964
0.108 0.403742
0.11 0.411076
0.112 0.418401
0.114 0.425717
0.116 0.433024
0.118 0.440322
0.12 0.447611
0.122 0.45489
0.124 0.46216
0.126 0.469419
0.128 0.476668
0.13 0.483906
0.132 0.491133
0.134 0.498349
0.136 0.505554
0.138 0.512747
0.14 0.519928
0.142 0.527097
0.144 0.534254
0.146 0.541397
0.148 0.548527
0.15 0.555644
0.152 0.562747
0.154 0.569836
0.156 0.57691
0.158 0.583969
0.16 0.591013
0.162 0.598042
0.164 0.605054
0.166 0.61205
0.168 0.61903
0.17 0.625992
0.172 0.632936
0.174 0.639862
0.176 0.64677
0.178 0.653659
0.18 0.660528
0.182 0.667377
0.184 0.674205
0.186 0.681013
0.188 0.687799
0.19 0.694562
0.192 0.701303
0.194 0.70802
0.196 0.714713
0.198 0.721381
0.2 0.728023
0.202 0.73464
0.204 0.741229
0.206 0.747791
0.208 0.754324
0.21 0.760828
0.212 0.767301
0.214 0.773743
0.216 0.780154
0.218 0.78653
0.22 0.792873
0.222 0.79918
0.224 0.805451
0.226 0.811684
0.228 0.817879
0.23 0.824033
0.232 0.830145
0.234 0.836213
0.236 0.842243
0.238 0.8482
0.24 0.854218
0.242 0.859727
0.244 0.867137
0.246 0.862707
0.248 1.06781
0.25 1.76692e-14
0.252 -1.06781
0.254 -0.862707
0.256 -0.867137
0.258 -0.859727
0.26 -0.854218
0.262 -0.8482
0.264 -0.842243
0.266 -0.836213
0.268 -0.830145
0.27 -0.824033
0.272 -0.817879
0.274 -0.811684
0.276 -0.805451
0.278 -0.79918
0.28 -0.792873
0.282 -0.78653
0.284 -0.780154
0.286 -0.773743
0.288 -0.767301
0.29 -0.760828
0.292 -0.754324
0.294 -0.747791
0.296 -0.741229
0.298 -0.73464
0.3 -0.728023
0.302 -0.721381
0.304 -0.714713
0.306 -0.70802
0.308 -0.701303
0.31 -0.694562
0.312 -0.687799
0.314 -0.681013
0.316 -0.674205
0.318 -0.667377
0.32 -0.660528
0.322 -0.653659
0.324 -0.64677
0.326 -0.639862
0.328 -0.632936
0.33 -0.625992
0.332 -0.61903
0.334 -0.61205
0.336 -0.605054
0.338 -0.598042
0.34 -0.591013
0.342 -0.583969
0.344 -0.57691
0.346 -0.569836
0.348 -0.562747
0.35 -0.555644
0.352 -0.548527
0.354 -0.541397
0.356 -0.534254
0.358 -0.527097
0.36 -0.519928
0.362 -0.512747
0.364 -0.505554
0.366 -0.498349
0.368 -0.491133
0.37 -0.483906
0.372 -0.476668
0.374 -0.469419
0.376 -0.46216
0.378 -0.45489
0.38 -0.447611
0.382 -0.440322
0.384 -0.433024
0.386 -0.425717
0.388 -0.418401
0.39 -0.411076
0.392 -0.403742
0.394 -0.3964
0.396 -0.38905
0.398 -0.381693
0.4 -0.374327
0.402 -0.366954
0.404 -0.359574
0.406 -0.352187
0.408 -0.344793
0.41 -0.337392
0.412 -0.329984
0.414 -0.322571
0.416 -0.315151
0.418 -0.307725
0.42 -0.300293
0.422 -0.292855
0.424 -0.285412
0.426 -0.277964
0.428 -0.270511
0.43 -0.263052
0.432 -0.255589
0.434 -0.248121
0.436 -0.240649
0.438 -0.233172
0.44 -0.225691
0.442 -0.218205
0.444 -0.210716
0.446 -0.203223
0.448 -0.195727
0.45 -0.188227
0.452 -0.180724
0.454 -0.173217
0.456 -0.165708
0.458 -0.158195
0.46 -0.15068
0.462 -0.143162
0.464 -0.135642
0.466 -0.128119
0.468 -0.120594
0.47 -0.113067
0.472 -0.105538
0.474 -0.0980072
0.476 -0.0904746
0.478 -0.0829406
0.48 -0.0754051
0.482 -0.0678682
0.484 -0.0603303
0.486 -0.0527913
0.488 -0.0452514
0.49 -0.0377107
0.492 -0.0301694
0.494 -0.0226275
0.496 -0.0150853
0.498 -0.00754271
0.5 -7.35007e-17
0.502 0.00754271
0.504 0.0150853
0.506 0.0226275
0.508 0.0301694
0.51 0.0377107
0.512 0.0452514
0.514 0.0527913
0.516 0.0603303
0.518 0.0678682
0.52 0.0754051
0.522 0.0829406
0.524 0.0904746
0.526 0.0980072
0.528 0.105538
0.53 0.113067
0.532 0.120594
0.534 0.128119
0.536 0.135642
0.538 0.143162
0.54 0.15068
0.542 0.158195
0.544 0.165708
0.546 0.173217
0.548 0.180724
0.55 0.188227
0.552 0.195727
0.554 0.203223
0.556 0.210716
0.558 0.218205
0.56 0.225691
0.562 0.233172
0.564 0.240649
0.566 0.248121
0.568 0.255589
0.57 0.263052
0.572 0.270511
0.574 0.277964
0.576 0.285412
0.578 0.292855
0.58 0.300293
0.582 0.307725
0.584 0.315151
0.586 0.322571
0.588 0.329984
0.59 0.337392
0.592 0.344793
0.594 0.352187
0.596 0.359574
0.598 0.366954
0.6 0.374327
0.602 0.381693
0.604 0.38905
0.606 0.3964
0.608 0.403742
0.61 0.411076
0.612 0.418401
0.614 0.425717
0.616 0.433024
0.618 0.440322
0.62 0.447611
0.622 0.45489
0.624 0.46216
0.626 0.469419
0.628 0.476668
0.63 0.483906
0.632 0.491133
0.634 0.498349
0.636 0.505554
0.638 0.512747
0.64 0.519928
0.642 0.527097
0.644 0.534254
0.646 0.541397
0.648 0.548527
0.65 0.555644
0.652 0.562747
0.654 0.569836
0.656 0.57691
0.658 0.583969
0.66 0.591013
0.662 0.598042
0.664 0.605054
0.666 0.61205
0.668 0.61903
0.67 0.625992
0.672 0.632936
0.674 0.639862
0.676 0.64677
0.678 0.653659
0.68 0.660528
0.682 0.667377
0.684 0.674205
0.686 0.681013
0.688 0.687799
0.69 0.694562
0.692 0.701303
0.694 0.70802
0.696 0.714713
0.698 0.721381
0.7 0.728023
0.702 0.73464
0.704 0.741229
0.706 0.747791
0.708 0.754324
0.71 0.760828
0.712 0.767301
0.714 0.773743
0.716 0.780154
0.718 0.78653
0.72 0.792873
0.722 0.79918
0.724 0.805451
0.726 0.811684
0.728 0.817879
0.73 0.824033
0.732 0.830145
0.734 0.836213
0.736 0.842243
0.738 0.8482
0.74 0.854218
0.742 0.859727
0.744 0.867137
0.746 0.862707
0.748 1.06781
0.75 -1.07217e-14
0.752 -1.06781
0.754 -0.862707
0.756 -0.867137
0.758 -0.859727
0.76 -0.854218
0.762 -0.8482
0.764 -0.842243
0.766 -0.836213
0.768 -0.830145
0.77 -0.824033
0.772 -0.817879
0.774 -0.811684
0.776 -0.805451
0.778 -0.79918
0.78 -0.792873
0.782 -0.78653
0.784 -0.780154
0.786 -0.773743
0.788 -0.767301
0.79 -0.760828
0.792 -0.754324
0.794 -0.747791
0.796 -0.741229
0.798 -0.73464
0.8 -0.728023
0.802 -0.721381
0.804 -0.714713
0.806 -0.70802
0.808 -0.701303
0.81 -0.694562
0.812 -0.687799
0.814 -0.681013
0.816 -0.674205
0.818 -0.667377
0.82 -0.660528
0.822 -0.653659
0.824 -0.64677
0.826 -0.639862
0.828 -0.632936
0.83 -0.625992
0.832 -0.61903
0.834 -0.61205
0.836 -0.605054
0.838 -0.598042
0.84 -0.591013
0.842 -0.583969
0.844 -0.57691
0.846 -0.569836
0.848 -0.562747
0.85 -0.555644
0.852 -0.548527
0.854 -0.541397
0.856 -0.534254
0.858 -0.527097
0.86 -0.519928
0.862 -0.512747
0.864 -0.505554
0.866 -0.498349
0.868 -0.491133
0.87 -0.483906
0.872 -0.476668
0.874 -0.469419
0.876 -0.46216
0.878 -0.45489
0.88 -0.447611
0.882 -0.440322
0.884 -0.433024
0.886 -0.425717
0.888 -0.418401
0.89 -0.411076
0.892 -0.403742
0.894 -0.3964
0.896 -0.38905
0.898 -0.381693
0.9 -0.374327
0.902 -0.366954
0.904 -0.359574
0.906 -0.352187
0.908 -0.344793
0.91 -0.337392
0.912 -0.329984
0.914 -0.322571
0.916 -0.315151
0.918 -0.307725
0.92 -0.300293
0.922 -0.292855
0.924 -0.285412
0.926 -0.277964
0.928 -0.270511
0.93 -0.263052
0.932 -0.255589
0.934 -0.248121
0.936 -0.240649
0.938 -0.233172
0.94 -0.225691
0.942 -0.218205
0.944 -0.210716
0.946 -0.203224
0.948 -0.195727
0.95 -0.188227
0.952 -0.180724
0.954 -0.173217
0.956 -0.165708
0.958 -0.158195
0.96 -0.150679
0.962 -0.143161
0.964 -0.135641
0.966 -0.128118
0.968 -0.120594
0.97 -0.113068
0.972 -0.105541
0.974 -0.098013
0.976 -0.090484
0.978 -0.0829536
0.98 -0.0754206
0.982 -0.0678827
0.984 -0.0603359
0.986 -0.0527748
0.988 -0.045192
0.99 -0.0375797
0.992 -0.0299322
0.994 -0.0222553
0.996 -0.0145952
0.998 -0.00714261
1 -0.000672409
