TITLE = "1D CFD Solution"
VARIABLES = "x", "u"
ZONE I=501, F=POINT
0 0.000580166
0.002 0.0142473
0.004 0.0293646
0.006 0.0444706
0.008 0.0594217
0.01 0.0742825
0.012 0.0891077
0.014 0.10392
0.016 0.118722
0.018 0.133511
0.02 0.148284
0.022 0.163037
0.024 0.177769
0.026 0.192477
0.028 0.207159
0.03 0.221813
0.032 0.236437
0.034 0.25103
0.036 0.265588
0.038 0.28011
0.04 0.294594
0.042 0.309037
0.044 0.323437
0.046 0.337792
0.048 0.352099
0.05 0.366357
0.052 0.380563
0.054 0.394714
0.056 0.408807
0.058 0.422842
0.06 0.436814
0.062 0.450722
0.064 0.464562
0.066 0.478332
0.068 0.492029
0.07 0.505651
0.072 0.519194
0.074 0.532656
0.076 0.546033
0.078 0.559323
0.08 0.572521
0.082 0.585626
0.084 0.598633
0.086 0.61154
0.088 0.624342
0.09 0.637036
0.092 0.649618
0.094 0.662085
0.096 0.674432
0.098 0.686656
0.1 0.698751
0.102 0.710715
0.104 0.722541
0.106 0.734226
0.108 0.745765
0.11 0.757153
0.112 0.768384
0.114 0.779453
0.116 0.790355
0.118 0.801084
0.12 0.811634
0.122 0.821998
0.124 0.832171
0.126 0.842145
0.128 0.851913
0.13 0.861468
0.132 0.870802
0.134 0.879908
0.136 0.888777
0.138 0.897399
0.14 0.905766
0.142 0.913869
0.144 0.921697
0.146 0.929239
0.148 0.936484
0.15 0.943421
0.152 0.950036
0.154 0.956318
0.156 0.962252
0.158 0.967823
0.16 0.973016
0.162 0.977814
0.164 0.982201
0.166 0.986157
0.168 0.989663
0.17 0.992698
0.172 0.995239
0.174 0.997263
0.176 0.998744
0.178 0.999654
0.18 0.999964
0.182 0.999642
0.184 0.998654
0.186 0.996963
0.188 0.994529
0.19 0.991308
0.192 0.987255
0.194 0.982317
0.196 0.976438
0.198 0.969558
0.2 0.96161
0.202 0.95252
0.204 0.942207
0.206 0.930583
0.208 0.917548
0.21 0.902992
0.212 0.886795
0.214 0.868819
0.216 0.848915
0.218 0.826913
0.22 0.802624
0.222 0.775838
0.224 0.746318
0.226 0.713803
0.228 0.678006
0.23 0.638614
0.232 0.595292
0.234 0.547698
0.236 0.495501
0.238 0.438413
0.24 0.376248
0.242 0.308997
0.244 0.236919
0.246 0.160642
0.248 0.0812134
0.25 4.1271e-16
0.252 -0.0812134
0.254 -0.160642
0.256 -0.236919
0.258 -0.308997
0.26 -0.376248
0.262 -0.438413
0.264 -0.495501
0.266 -0.547698
0.268 -0.595292
0.27 -0.638614
0.272 -0.678006
0.274 -0.713803
0.276 -0.746318
0.278 -0.775838
0.28 -0.802624
0.282 -0.826913
0.284 -0.848915
0.286 -0.868819
0.288 -0.886795
0.29 -0.902992
0.292 -0.917548
0.294 -0.930583
0.296 -0.942207
0.298 -0.95252
0.3 -0.96161
0.302 -0.969558
0.304 -0.976438
0.306 -0.982317
0.308 -0.987255
0.31 -0.991308
0.312 -0.994529
0.314 -0.996963
0.316 -0.998654
0.318 -0.999642
0.32 -0.999964
0.322 -0.999654
0.324 -0.998744
0.326 -0.997263
0.328 -0.995239
0.33 -0.992698
0.332 -0.989663
0.334 -0.986157
0.336 -0.982201
0.338 -0.977814
0.34 -0.973016
0.342 -0.967823
0.344 -0.962252
0.346 -0.956318
0.348 -0.950036
0.35 -0.943421
0.352 -0.936484
0.354 -0.929239
0.356 -0.921697
0.358 -0.913869
0.36 -0.905766
0.362 -0.897399
0.364 -0.888777
0.366 -0.879908
0.368 -0.870802
0.37 -0.861468
0.372 -0.851913
0.374 -0.842145
0.376 -0.832171
0.378 -0.821998
0.38 -0.811634
0.382 -0.801084
0.384 -0.790355
0.386 -0.779453
0.388 -0.768384
0.39 -0.757153
0.392 -0.745765
0.394 -0.734226
0.396 -0.722541
0.398 -0.710715
0.4 -0.698751
0.402 -0.686656
0.404 -0.674432
0.406 -0.662085
0.408 -0.649618
0.41 -0.637036
0.412 -0.624342
0.414 -0.61154
0.416 -0.598633
0.418 -0.585626
0.42 -0.572521
0.422 -0.559323
0.424 -0.546033
0.426 -0.532656
0.428 -0.519194
0.43 -0.505651
0.432 -0.492029
0.434 -0.478332
0.436 -0.464562
0.438 -0.450722
0.44 -0.436814
0.442 -0.422842
0.444 -0.408807
0.446 -0.394714
0.448 -0.380563
0.45 -0.366357
0.452 -0.352099
0.454 -0.337792
0.456 -0.323437
0.458 -0.309037
0.46 -0.294594
0.462 -0.28011
0.464 -0.265588
0.466 -0.25103
0.468 -0.236437
0.47 -0.221813
0.472 -0.207159
0.474 -0.192477
0.476 -0.177769
0.478 -0.163037
0.48 -0.148284
0.482 -0.133512
0.484 -0.118721
0.486 -0.103915
0.488 -0.0890955
0.49 -0.0742641
0.492 -0.059423
0.494 -0.0445742
0.496 -0.0297194
0.498 -0.0148608
0.5 -1.44823e-16
0.502 0.0148608
0.504 0.0297194
0.506 0.0445742
0.508 0.059423
0.51 0.0742641
0.512 0.0890955
0.514 0.103915
0.516 0.118721
0.518 0.133512
0.52 0.148284
0.522 0.163037
0.524 0.177769
0.526 0.192477
0.528 0.207159
0.53 0.221813
0.532 0.236437
0.534 0.25103
0.536 0.265588
0.538 0.28011
0.54 0.294594
0.542 0.309037
0.544 0.323437
0.546 0.337792
0.548 0.352099
0.55 0.366357
0.552 0.380563
0.554 0.394714
0.556 0.408807
0.558 0.422842
0.56 0.436814
0.562 0.450722
0.564 0.464562
0.566 0.478332
0.568 0.492029
0.57 0.505651
0.572 0.519194
0.574 0.532656
0.576 0.546033
0.578 0.559323
0.58 0.572521
0.582 0.585626
0.584 0.598633
0.586 0.61154
0.588 0.624342
0.59 0.637036
0.592 0.649618
0.594 0.662085
0.596 0.674432
0.598 0.686656
0.6 0.698751
0.602 0.710715
0.604 0.722541
0.606 0.734226
0.608 0.745765
0.61 0.757153
0.612 0.768384
0.614 0.779453
0.616 0.790355
0.618 0.801084
0.62 0.811634
0.622 0.821998
0.624 0.832171
0.626 0.842145
0.628 0.851913
0.63 0.861468
0.632 0.870802
0.634 0.879908
0.636 0.888777
0.638 0.897399
0.64 0.905766
0.642 0.913869
0.644 0.921697
0.646 0.929239
0.648 0.936484
0.65 0.943421
0.652 0.950036
0.654 0.956318
0.656 0.962252
0.658 0.967823
0.66 0.973016
0.662 0.977814
0.664 0.982201
0.666 0.986157
0.668 0.989663
0.67 0.992698
0.672 0.995239
0.674 0.997263
0.676 0.998744
0.678 0.999654
0.68 0.999964
0.682 0.999642
0.684 0.998654
0.686 0.996963
0.688 0.994529
0.69 0.991308
0.692 0.987255
0.694 0.982317
0.696 0.976438
0.698 0.969558
0.7 0.96161
0.702 0.95252
0.704 0.942207
0.706 0.930583
0.708 0.917548
0.71 0.902992
0.712 0.886795
0.714 0.868819
0.716 0.848915
0.718 0.826913
0.72 0.802624
0.722 0.775838
0.724 0.746318
0.726 0.713803
0.728 0.678006
0.73 0.638614
0.732 0.595292
0.734 0.547698
0.736 0.495501
0.738 0.438413
0.74 0.376248
0.742 0.308997
0.744 0.236919
0.746 0.160642
0.748 0.0812134
0.75 1.21195e-15
0.752 -0.0812134
0.754 -0.160642
0.756 -0.236919
0.758 -0.308997
0.76 -0.376248
0.762 -0.438413
0.764 -0.495501
0.766 -0.547698
0.768 -0.595292
0.77 -0.638614
0.772 -0.678006
0.774 -0.713803
0.776 -0.746318
0.778 -0.775838
0.78 -0.802624
0.782 -0.826913
0.784 -0.848915
0.786 -0.868819
0.788 -0.886795
0.79 -0.902992
0.792 -0.917548
0.794 -0.930583
0.796 -0.942207
0.798 -0.95252
0.8 -0.96161
0.802 -0.969558
0.804 -0.976438
0.806 -0.982317
0.808 -0.987255
0.81 -0.991308
0.812 -0.994529
0.814 -0.996963
0.816 -0.998654
0.818 -0.999642
0.82 -0.999964
0.822 -0.999654
0.824 -0.998744
0.826 -0.997263
0.828 -0.995239
0.83 -0.992698
0.832 -0.989663
0.834 -0.986157
0.836 -0.982201
0.838 -0.977814
0.84 -0.973016
0.842 -0.967823
0.844 -0.962252
0.846 -0.956318
0.848 -0.950036
0.85 -0.943421
0.852 -0.936484
0.854 -0.929239
0.856 -0.921697
0.858 -0.913869
0.86 -0.905766
0.862 -0.897399
0.864 -0.888777
0.866 -0.879908
0.868 -0.870802
0.87 -0.861468
0.872 -0.851913
0.874 -0.842145
0.876 -0.832171
0.878 -0.821998
0.88 -0.811634
0.882 -0.801084
0.884 -0.790355
0.886 -0.779453
0.888 -0.768384
0.89 -0.757153
0.892 -0.745765
0.894 -0.734226
0.896 -0.722541
0.898 -0.710715
0.9 -0.698751
0.902 -0.686656
0.904 -0.674432
0.906 -0.662085
0.908 -0.649618
0.91 -0.637036
0.912 -0.624342
0.914 -0.61154
0.916 -0.598633
0.918 -0.585626
0.92 -0.572521
0.922 -0.559323
0.924 -0.546033
0.926 -0.532656
0.928 -0.519194
0.93 -0.505651
0.932 -0.492029
0.934 -0.478332
0.936 -0.464562
0.938 -0.450722
0.94 -0.436814
0.942 -0.422842
0.944 -0.408807
0.946 -0.394714
0.948 -0.380563
0.95 -0.366357
0.952 -0.352099
0.954 -0.337792
0.956 -0.323437
0.958 -0.309037
0.96 -0.294594
0.962 -0.28011
0.964 -0.265588
0.966 -0.25103
0.968 -0.236437
0.97 -0.221813
0.972 -0.207159
0.974 -0.192477
0.976 -0.177769
0.978 -0.163037
0.98 -0.148284
0.982 -0.133511
0.984 -0.118722
0.986 -0.10392
0.988 -0.0891077
0.99 -0.0742825
0.992 -0.0594217
0.994 -0.0444706
0.996 -0.0293646
0.998 -0.0142473
1 -0.000580166
