TITLE = "1D CFD Solution"
VARIABLES = "x", "u"
ZONE I=501, F=POINT
0 0.000485953
0.002 0.0151291
0.004 0.0315393
0.006 0.0480183
0.008 0.0641438
0.01 0.0801848
0.012 0.0961976
0.014 0.112191
0.016 0.128166
0.018 0.144119
0.02 0.160048
0.022 0.175951
0.024 0.191824
0.026 0.207665
0.028 0.223471
0.03 0.239239
0.032 0.254966
0.034 0.27065
0.036 0.286288
0.038 0.301876
0.04 0.317412
0.042 0.332893
0.044 0.348316
0.046 0.363677
0.048 0.378974
0.05 0.394203
0.052 0.409361
0.054 0.424446
0.056 0.439452
0.058 0.454378
0.06 0.469219
0.062 0.483973
0.064 0.498635
0.066 0.513202
0.068 0.527671
0.07 0.542036
0.072 0.556296
0.074 0.570444
0.076 0.584478
0.078 0.598393
0.08 0.612187
0.082 0.625848
0.084 0.639387
0.086 0.652772
0.088 0.666043
0.09 0.679133
0.092 0.692105
0.094 0.704902
0.096 0.717529
0.098 0.730023
0.1 0.742307
0.102 0.75442
0.104 0.766381
0.106 0.77811
0.108 0.789641
0.11 0.801014
0.112 0.812148
0.114 0.823028
0.116 0.833731
0.118 0.844222
0.12 0.854416
0.122 0.864345
0.124 0.874081
0.126 0.883569
0.128 0.892712
0.13 0.901537
0.132 0.910132
0.134 0.918484
0.136 0.926475
0.138 0.934045
0.14 0.941264
0.142 0.948229
0.144 0.954923
0.146 0.961209
0.148 0.966966
0.15 0.972203
0.152 0.977047
0.154 0.981622
0.156 0.985935
0.158 0.989842
0.16 0.993122
0.162 0.99558
0.164 0.997152
0.166 0.997931
0.168 0.998157
0.17 0.998137
0.172 0.997905
0.174 0.997287
0.176 0.996111
0.178 0.994209
0.18 0.991461
0.182 0.987778
0.184 0.983121
0.186 0.977486
0.188 0.970885
0.19 0.963332
0.192 0.954815
0.194 0.945297
0.196 0.934714
0.198 0.922989
0.2 0.910042
0.202 0.895802
0.204 0.880202
0.206 0.863179
0.208 0.844662
0.21 0.824574
0.212 0.802832
0.214 0.779349
0.216 0.754035
0.218 0.726802
0.22 0.697561
0.222 0.666224
0.224 0.632709
0.226 0.596939
0.228 0.558853
0.23 0.518403
0.232 0.475568
0.234 0.430356
0.236 0.382814
0.238 0.333037
0.24 0.281174
0.242 0.227434
0.244 0.172091
0.246 0.115478
0.248 0.0579833
0.25 2.96476e-16
0.252 -0.0579833
0.254 -0.115478
0.256 -0.172091
0.258 -0.227434
0.26 -0.281174
0.262 -0.333037
0.264 -0.382814
0.266 -0.430356
0.268 -0.475568
0.27 -0.518403
0.272 -0.558853
0.274 -0.596939
0.276 -0.632709
0.278 -0.666224
0.28 -0.697561
0.282 -0.726802
0.284 -0.754035
0.286 -0.779349
0.288 -0.802832
0.29 -0.824574
0.292 -0.844662
0.294 -0.863179
0.296 -0.880202
0.298 -0.895802
0.3 -0.910042
0.302 -0.922989
0.304 -0.934714
0.306 -0.945297
0.308 -0.954815
0.31 -0.963332
0.312 -0.970885
0.314 -0.977486
0.316 -0.983121
0.318 -0.987778
0.32 -0.991461
0.322 -0.994209
0.324 -0.996111
0.326 -0.997287
0.328 -0.997905
0.33 -0.998137
0.332 -0.998157
0.334 -0.997931
0.336 -0.997152
0.338 -0.99558
0.34 -0.993122
0.342 -0.989842
0.344 -0.985935
0.346 -0.981622
0.348 -0.977047
0.35 -0.972203
0.352 -0.966966
0.354 -0.961209
0.356 -0.954923
0.358 -0.948229
0.36 -0.941264
0.362 -0.934045
0.364 -0.926475
0.366 -0.918484
0.368 -0.910132
0.37 -0.901537
0.372 -0.892712
0.374 -0.883569
0.376 -0.874081
0.378 -0.864345
0.38 -0.854416
0.382 -0.844222
0.384 -0.833731
0.386 -0.823028
0.388 -0.812148
0.39 -0.801014
0.392 -0.789641
0.394 -0.77811
0.396 -0.766381
0.398 -0.75442
0.4 -0.742307
0.402 -0.730023
0.404 -0.717529
0.406 -0.704902
0.408 -0.692105
0.41 -0.679133
0.412 -0.666043
0.414 -0.652772
0.416 -0.639387
0.418 -0.625848
0.42 -0.612187
0.422 -0.598393
0.424 -0.584478
0.426 -0.570444
0.428 -0.556296
0.43 -0.542036
0.432 -0.527671
0.434 -0.513202
0.436 -0.498635
0.438 -0.483973
0.44 -0.469219
0.442 -0.454378
0.444 -0.439452
0.446 -0.424446
0.448 -0.409361
0.45 -0.394203
0.452 -0.378974
0.454 -0.363677
0.456 -0.348316
0.458 -0.332893
0.46 -0.317412
0.462 -0.301876
0.464 -0.286288
0.466 -0.27065
0.468 -0.254966
0.47 -0.239239
0.472 -0.223471
0.474 -0.207665
0.476 -0.191824
0.478 -0.175951
0.48 -0.160048
0.482 -0.144119
0.484 -0.128166
0.486 -0.112192
0.488 -0.0961987
0.49 -0.0801898
0.492 -0.0641677
0.494 -0.048135
0.496 -0.0320944
0.498 -0.0160485
0.5 -1.56379e-16
0.502 0.0160485
0.504 0.0320944
0.506 0.048135
0.508 0.0641677
0.51 0.0801898
0.512 0.0961987
0.514 0.112192
0.516 0.128166
0.518 0.144119
0.52 0.160048
0.522 0.175951
0.524 0.191824
0.526 0.207665
0.528 0.223471
0.53 0.239239
0.532 0.254966
0.534 0.27065
0.536 0.286288
0.538 0.301876
0.54 0.317412
0.542 0.332893
0.544 0.348316
0.546 0.363677
0.548 0.378974
0.55 0.394203
0.552 0.409361
0.554 0.424446
0.556 0.439452
0.558 0.454378
0.56 0.469219
0.562 0.483973
0.564 0.498635
0.566 0.513202
0.568 0.527671
0.57 0.542036
0.572 0.556296
0.574 0.570444
0.576 0.584478
0.578 0.598393
0.58 0.612187
0.582 0.625848
0.584 0.639387
0.586 0.652772
0.588 0.666043
0.59 0.679133
0.592 0.692105
0.594 0.704902
0.596 0.717529
0.598 0.730023
0.6 0.742307
0.602 0.75442
0.604 0.766381
0.606 0.77811
0.608 0.789641
0.61 0.801014
0.612 0.812148
0.614 0.823028
0.616 0.833731
0.618 0.844222
0.62 0.854416
0.622 0.864345
0.624 0.874081
0.626 0.883569
0.628 0.892712
0.63 0.901537
0.632 0.910132
0.634 0.918484
0.636 0.926475
0.638 0.934045
0.64 0.941264
0.642 0.948229
0.644 0.954923
0.646 0.961209
0.648 0.966966
0.65 0.972203
0.652 0.977047
0.654 0.981622
0.656 0.985935
0.658 0.989842
0.66 0.993122
0.662 0.99558
0.664 0.997152
0.666 0.997931
0.668 0.998157
0.67 0.998137
0.672 0.997905
0.674 0.997287
0.676 0.996111
0.678 0.994209
0.68 0.991461
0.682 0.987778
0.684 0.983121
0.686 0.977486
0.688 0.970885
0.69 0.963332
0.692 0.954815
0.694 0.945297
0.696 0.934714
0.698 0.922989
0.7 0.910042
0.702 0.895802
0.704 0.880202
0.706 0.863179
0.708 0.844662
0.71 0.824574
0.712 0.802832
0.714 0.779349
0.716 0.754035
0.718 0.726802
0.72 0.697561
0.722 0.666224
0.724 0.632709
0.726 0.596939
0.728 0.558853
0.73 0.518403
0.732 0.475568
0.734 0.430356
0.736 0.382814
0.738 0.333037
0.74 0.281174
0.742 0.227434
0.744 0.172091
0.746 0.115478
0.748 0.0579833
0.75 8.47733e-16
0.752 -0.0579833
0.754 -0.115478
0.756 -0.172091
0.758 -0.227434
0.76 -0.281174
0.762 -0.333037
0.764 -0.382814
0.766 -0.430356
0.768 -0.475568
0.77 -0.518403
0.772 -0.558853
0.774 -0.596939
0.776 -0.632709
0.778 -0.666224
0.78 -0.697561
0.782 -0.726802
0.784 -0.754035
0.786 -0.779349
0.788 -0.802832
0.79 -0.824574
0.792 -0.844662
0.794 -0.863179
0.796 -0.880202
0.798 -0.895802
0.8 -0.910042
0.802 -0.922989
0.804 -0.934714
0.806 -0.945297
0.808 -0.954815
0.81 -0.963332
0.812 -0.970885
0.814 -0.977486
0.816 -0.983121
0.818 -0.987778
0.82 -0.991461
0.822 -0.994209
0.824 -0.996111
0.826 -0.997287
0.828 -0.997905
0.83 -0.998137
0.832 -0.998157
0.834 -0.997931
0.836 -0.997152
0.838 -0.99558
0.84 -0.993122
0.842 -0.989842
0.844 -0.985935
0.846 -0.981622
0.848 -0.977047
0.85 -0.972203
0.852 -0.966966
0.854 -0.961209
0.856 -0.954923
0.858 -0.948229
0.86 -0.941264
0.862 -0.934045
0.864 -0.926475
0.866 -0.918484
0.868 -0.910132
0.87 -0.901537
0.872 -0.892712
0.874 -0.883569
0.876 -0.874081
0.878 -0.864345
0.88 -0.854416
0.882 -0.844222
0.884 -0.833731
0.886 -0.823028
0.888 -0.812148
0.89 -0.801014
0.892 -0.789641
0.894 -0.77811
0.896 -0.766381
0.898 -0.75442
0.9 -0.742307
0.902 -0.730023
0.904 -0.717529
0.906 -0.704902
0.908 -0.692105
0.91 -0.679133
0.912 -0.666043
0.914 -0.652772
0.916 -0.639387
0.918 -0.625848
0.92 -0.612187
0.922 -0.598393
0.924 -0.584478
0.926 -0.570444
0.928 -0.556296
0.93 -0.542036
0.932 -0.527671
0.934 -0.513202
0.936 -0.498635
0.938 -0.483973
0.94 -0.469219
0.942 -0.454378
0.944 -0.439452
0.946 -0.424446
0.948 -0.409361
0.95 -0.394203
0.952 -0.378974
0.954 -0.363677
0.956 -0.348316
0.958 -0.332893
0.96 -0.317412
0.962 -0.301876
0.964 -0.286288
0.966 -0.27065
0.968 -0.254966
0.97 -0.239239
0.972 -0.223471
0.974 -0.207665
0.976 -0.191824
0.978 -0.175951
0.98 -0.160048
0.982 -0.144119
0.984 -0.128166
0.986 -0.112191
0.988 -0.0961976
0.99 -0.0801848
0.992 -0.0641438
0.994 -0.0480183
0.996 -0.0315393
0.998 -0.0151291
1 -0.000485953
